variables=x,y,psi
zone i=121	,j= 21 ,f=point
0 1 1
0.05 1 1
0.1 1 1
0.15 1 1
0.2 1 1
0.25 1 1
0.3 1 1
0.35 1 1
0.4 1 1
0.45 1 1
0.5 1 1
0.55 1 1
0.6 1 1
0.65 1 1
0.7 1 1
0.75 1 1
0.8 1 1
0.85 1 1
0.9 1 1
0.95 1 1
1 1 1
1.05 1 1
1.1 1 1
1.15 1 1
1.2 1 1
1.25 1 1
1.3 1 1
1.35 1 1
1.4 1 1
1.45 1 1
1.5 1 1
1.55 1 1
1.6 1 1
1.65 1 1
1.7 1 1
1.75 1 1
1.8 1 1
1.85 1 1
1.9 1 1
1.95 1 1
2 1 1
2.05 1 1
2.1 1 1
2.15 1 1
2.2 1 1
2.25 1 1
2.3 1 1
2.35 1 1
2.4 1 1
2.45 1 1
2.5 1 1
2.55 1 1
2.6 1 1
2.65 1 1
2.7 1 1
2.75 1 1
2.8 1 1
2.85 1 1
2.9 1 1
2.95 1 1
3 1 1
3.05 1 1
3.1 1 1
3.15 1 1
3.2 1 1
3.25 1 1
3.3 1 1
3.35 1 1
3.4 1 1
3.45 1 1
3.5 1 1
3.55 1 1
3.6 1 1
3.65 1 1
3.7 1 1
3.75 1 1
3.8 1 1
3.85 1 1
3.9 1 1
3.95 1 1
4 1 1
4.05 1 1
4.1 1 1
4.15 1 1
4.2 1 1
4.25 1 1
4.3 1 1
4.35 1 1
4.4 1 1
4.45 1 1
4.5 1 1
4.55 1 1
4.6 1 1
4.65 1 1
4.7 1 1
4.75 1 1
4.8 1 1
4.85 1 1
4.9 1 1
4.95 1 1
5 1 1
5.05 1 1
5.1 1 1
5.15 1 1
5.2 1 1
5.25 1 1
5.3 1 1
5.35 1 1
5.4 1 1
5.45 1 1
5.5 1 1
5.55 1 1
5.6 1 1
5.65 1 1
5.7 1 1
5.75 1 1
5.8 1 1
5.85 1 1
5.9 1 1
5.95 1 1
6 1 1
0 0.95 0.916667
0.05 0.95 0.916667
0.1 0.95 0.916667
0.15 0.95 0.916667
0.2 0.95 0.916667
0.25 0.95 0.916667
0.3 0.95 0.916667
0.35 0.95 0.916667
0.4 0.95 0.916667
0.45 0.95 0.916667
0.5 0.95 0.916667
0.55 0.95 0.916667
0.6 0.95 0.916667
0.65 0.95 0.916667
0.7 0.95 0.916667
0.75 0.95 0.916667
0.8 0.95 0.916667
0.85 0.95 0.916667
0.9 0.95 0.916667
0.95 0.95 0.916667
1 0.95 0.916667
1.05 0.95 0.916667
1.1 0.95 0.916667
1.15 0.95 0.916667
1.2 0.95 0.916667
1.25 0.95 0.916667
1.3 0.95 0.916667
1.35 0.95 0.916667
1.4 0.95 0.916667
1.45 0.95 0.916667
1.5 0.95 0.916667
1.55 0.95 0.916667
1.6 0.95 0.916667
1.65 0.95 0.916667
1.7 0.95 0.916667
1.75 0.95 0.916667
1.8 0.95 0.916667
1.85 0.95 0.916667
1.9 0.95 0.916667
1.95 0.95 0.916667
2 0.95 0.916667
2.05 0.95 0.916668
2.1 0.95 0.916669
2.15 0.95 0.916671
2.2 0.95 0.916675
2.25 0.95 0.916682
2.3 0.95 0.916694
2.35 0.95 0.916712
2.4 0.95 0.916742
2.45 0.95 0.916787
2.5 0.95 0.916853
2.55 0.95 0.916944
2.6 0.95 0.917066
2.65 0.95 0.917223
2.7 0.95 0.917417
2.75 0.95 0.917648
2.8 0.95 0.917917
2.85 0.95 0.918221
2.9 0.95 0.918559
2.95 0.95 0.918927
3 0.95 0.919322
3.05 0.95 0.919741
3.1 0.95 0.920179
3.15 0.95 0.920635
3.2 0.95 0.921105
3.25 0.95 0.921586
3.3 0.95 0.922077
3.35 0.95 0.922574
3.4 0.95 0.923075
3.45 0.95 0.92358
3.5 0.95 0.924086
3.55 0.95 0.924591
3.6 0.95 0.925096
3.65 0.95 0.925598
3.7 0.95 0.926097
3.75 0.95 0.926592
3.8 0.95 0.927082
3.85 0.95 0.927567
3.9 0.95 0.928047
3.95 0.95 0.92852
4 0.95 0.928986
4.05 0.95 0.929446
4.1 0.95 0.929898
4.15 0.95 0.930343
4.2 0.95 0.930781
4.25 0.95 0.931211
4.3 0.95 0.931634
4.35 0.95 0.932049
4.4 0.95 0.932456
4.45 0.95 0.932855
4.5 0.95 0.933247
4.55 0.95 0.933631
4.6 0.95 0.934007
4.65 0.95 0.934375
4.7 0.95 0.934736
4.75 0.95 0.935089
4.8 0.95 0.935435
4.85 0.95 0.935774
4.9 0.95 0.936105
4.95 0.95 0.936429
5 0.95 0.936747
5.05 0.95 0.937057
5.1 0.95 0.93736
5.15 0.95 0.937657
5.2 0.95 0.937947
5.25 0.95 0.93823
5.3 0.95 0.938507
5.35 0.95 0.938778
5.4 0.95 0.939043
5.45 0.95 0.939302
5.5 0.95 0.939555
5.55 0.95 0.939803
5.6 0.95 0.940047
5.65 0.95 0.940289
5.7 0.95 0.940535
5.75 0.95 0.9408
5.8 0.95 0.94112
5.85 0.95 0.941595
5.9 0.95 0.942493
5.95 0.95 0.944566
6 0.95 0.95
0 0.9 0.833333
0.05 0.9 0.833333
0.1 0.9 0.833333
0.15 0.9 0.833333
0.2 0.9 0.833333
0.25 0.9 0.833333
0.3 0.9 0.833333
0.35 0.9 0.833333
0.4 0.9 0.833333
0.45 0.9 0.833333
0.5 0.9 0.833333
0.55 0.9 0.833333
0.6 0.9 0.833333
0.65 0.9 0.833333
0.7 0.9 0.833333
0.75 0.9 0.833333
0.8 0.9 0.833333
0.85 0.9 0.833333
0.9 0.9 0.833333
0.95 0.9 0.833333
1 0.9 0.833333
1.05 0.9 0.833333
1.1 0.9 0.833333
1.15 0.9 0.833333
1.2 0.9 0.833333
1.25 0.9 0.833333
1.3 0.9 0.833333
1.35 0.9 0.833333
1.4 0.9 0.833333
1.45 0.9 0.833333
1.5 0.9 0.833333
1.55 0.9 0.833333
1.6 0.9 0.833333
1.65 0.9 0.833333
1.7 0.9 0.833333
1.75 0.9 0.833333
1.8 0.9 0.833333
1.85 0.9 0.833334
1.9 0.9 0.833334
1.95 0.9 0.833334
2 0.9 0.833335
2.05 0.9 0.833337
2.1 0.9 0.833341
2.15 0.9 0.833348
2.2 0.9 0.83336
2.25 0.9 0.83338
2.3 0.9 0.833414
2.35 0.9 0.833469
2.4 0.9 0.833554
2.45 0.9 0.83368
2.5 0.9 0.833857
2.55 0.9 0.834098
2.6 0.9 0.834409
2.65 0.9 0.834795
2.7 0.9 0.835259
2.75 0.9 0.835798
2.8 0.9 0.83641
2.85 0.9 0.837088
2.9 0.9 0.837827
2.95 0.9 0.838621
3 0.9 0.839461
3.05 0.9 0.840342
3.1 0.9 0.841256
3.15 0.9 0.842199
3.2 0.9 0.843164
3.25 0.9 0.844147
3.3 0.9 0.845143
3.35 0.9 0.846148
3.4 0.9 0.847158
3.45 0.9 0.848171
3.5 0.9 0.849184
3.55 0.9 0.850194
3.6 0.9 0.851199
3.65 0.9 0.852198
3.7 0.9 0.853189
3.75 0.9 0.85417
3.8 0.9 0.85514
3.85 0.9 0.856099
3.9 0.9 0.857046
3.95 0.9 0.857979
4 0.9 0.858898
4.05 0.9 0.859804
4.1 0.9 0.860694
4.15 0.9 0.86157
4.2 0.9 0.86243
4.25 0.9 0.863276
4.3 0.9 0.864105
4.35 0.9 0.864919
4.4 0.9 0.865718
4.45 0.9 0.866501
4.5 0.9 0.867269
4.55 0.9 0.868021
4.6 0.9 0.868758
4.65 0.9 0.86948
4.7 0.9 0.870186
4.75 0.9 0.870878
4.8 0.9 0.871555
4.85 0.9 0.872218
4.9 0.9 0.872866
4.95 0.9 0.8735
5 0.9 0.874121
5.05 0.9 0.874727
5.1 0.9 0.87532
5.15 0.9 0.8759
5.2 0.9 0.876467
5.25 0.9 0.877021
5.3 0.9 0.877563
5.35 0.9 0.878092
5.4 0.9 0.87861
5.45 0.9 0.879116
5.5 0.9 0.879611
5.55 0.9 0.880096
5.6 0.9 0.880575
5.65 0.9 0.881052
5.7 0.9 0.881544
5.75 0.9 0.882086
5.8 0.9 0.882768
5.85 0.9 0.883811
5.9 0.9 0.885771
5.95 0.9 0.890029
6 0.9 0.9
0 0.85 0.75
0.05 0.85 0.75
0.1 0.85 0.75
0.15 0.85 0.75
0.2 0.85 0.75
0.25 0.85 0.75
0.3 0.85 0.75
0.35 0.85 0.75
0.4 0.85 0.75
0.45 0.85 0.75
0.5 0.85 0.75
0.55 0.85 0.75
0.6 0.85 0.75
0.65 0.85 0.75
0.7 0.85 0.75
0.75 0.85 0.75
0.8 0.85 0.75
0.85 0.85 0.75
0.9 0.85 0.75
0.95 0.85 0.75
1 0.85 0.75
1.05 0.85 0.75
1.1 0.85 0.75
1.15 0.85 0.75
1.2 0.85 0.75
1.25 0.85 0.75
1.3 0.85 0.75
1.35 0.85 0.75
1.4 0.85 0.75
1.45 0.85 0.75
1.5 0.85 0.75
1.55 0.85 0.75
1.6 0.85 0.75
1.65 0.85 0.75
1.7 0.85 0.75
1.75 0.85 0.75
1.8 0.85 0.75
1.85 0.85 0.750001
1.9 0.85 0.750001
1.95 0.85 0.750003
2 0.85 0.750005
2.05 0.85 0.75001
2.1 0.85 0.750019
2.15 0.85 0.750035
2.2 0.85 0.750064
2.25 0.85 0.750114
2.3 0.85 0.750196
2.35 0.85 0.750325
2.4 0.85 0.75052
2.45 0.85 0.7508
2.5 0.85 0.751181
2.55 0.85 0.751676
2.6 0.85 0.752291
2.65 0.85 0.753025
2.7 0.85 0.753876
2.75 0.85 0.754836
2.8 0.85 0.755894
2.85 0.85 0.757042
2.9 0.85 0.758267
2.95 0.85 0.759559
3 0.85 0.760908
3.05 0.85 0.762305
3.1 0.85 0.76374
3.15 0.85 0.765205
3.2 0.85 0.766694
3.25 0.85 0.768199
3.3 0.85 0.769716
3.35 0.85 0.771238
3.4 0.85 0.772763
3.45 0.85 0.774285
3.5 0.85 0.775801
3.55 0.85 0.777309
3.6 0.85 0.778806
3.65 0.85 0.78029
3.7 0.85 0.781759
3.75 0.85 0.78321
3.8 0.85 0.784644
3.85 0.85 0.786058
3.9 0.85 0.787452
3.95 0.85 0.788825
4 0.85 0.790176
4.05 0.85 0.791505
4.1 0.85 0.792812
4.15 0.85 0.794095
4.2 0.85 0.795355
4.25 0.85 0.796592
4.3 0.85 0.797806
4.35 0.85 0.798996
4.4 0.85 0.800163
4.45 0.85 0.801306
4.5 0.85 0.802427
4.55 0.85 0.803524
4.6 0.85 0.804599
4.65 0.85 0.805651
4.7 0.85 0.806681
4.75 0.85 0.80769
4.8 0.85 0.808676
4.85 0.85 0.809641
4.9 0.85 0.810585
4.95 0.85 0.811508
5 0.85 0.812411
5.05 0.85 0.813294
5.1 0.85 0.814157
5.15 0.85 0.815
5.2 0.85 0.815825
5.25 0.85 0.816631
5.3 0.85 0.817418
5.35 0.85 0.818188
5.4 0.85 0.81894
5.45 0.85 0.819676
5.5 0.85 0.820396
5.55 0.85 0.821103
5.6 0.85 0.821802
5.65 0.85 0.822503
5.7 0.85 0.823234
5.75 0.85 0.824055
5.8 0.85 0.825112
5.85 0.85 0.82675
5.9 0.85 0.82978
5.95 0.85 0.836088
6 0.85 0.85
0 0.8 0.666667
0.05 0.8 0.666667
0.1 0.8 0.666667
0.15 0.8 0.666667
0.2 0.8 0.666667
0.25 0.8 0.666667
0.3 0.8 0.666667
0.35 0.8 0.666667
0.4 0.8 0.666667
0.45 0.8 0.666667
0.5 0.8 0.666667
0.55 0.8 0.666667
0.6 0.8 0.666667
0.65 0.8 0.666667
0.7 0.8 0.666667
0.75 0.8 0.666667
0.8 0.8 0.666667
0.85 0.8 0.666667
0.9 0.8 0.666667
0.95 0.8 0.666667
1 0.8 0.666667
1.05 0.8 0.666667
1.1 0.8 0.666667
1.15 0.8 0.666667
1.2 0.8 0.666667
1.25 0.8 0.666667
1.3 0.8 0.666667
1.35 0.8 0.666667
1.4 0.8 0.666667
1.45 0.8 0.666667
1.5 0.8 0.666667
1.55 0.8 0.666667
1.6 0.8 0.666667
1.65 0.8 0.666667
1.7 0.8 0.666667
1.75 0.8 0.666667
1.8 0.8 0.666667
1.85 0.8 0.666668
1.9 0.8 0.666669
1.95 0.8 0.666672
2 0.8 0.666678
2.05 0.8 0.666689
2.1 0.8 0.66671
2.15 0.8 0.666748
2.2 0.8 0.666815
2.25 0.8 0.66693
2.3 0.8 0.667115
2.35 0.8 0.667401
2.4 0.8 0.667818
2.45 0.8 0.668391
2.5 0.8 0.669134
2.55 0.8 0.670052
2.6 0.8 0.671139
2.65 0.8 0.672385
2.7 0.8 0.673774
2.75 0.8 0.67529
2.8 0.8 0.676917
2.85 0.8 0.678639
2.9 0.8 0.680441
2.95 0.8 0.682309
3 0.8 0.68423
3.05 0.8 0.686193
3.1 0.8 0.688188
3.15 0.8 0.690207
3.2 0.8 0.692241
3.25 0.8 0.694283
3.3 0.8 0.696328
3.35 0.8 0.69837
3.4 0.8 0.700404
3.45 0.8 0.702428
3.5 0.8 0.704436
3.55 0.8 0.706427
3.6 0.8 0.708397
3.65 0.8 0.710345
3.7 0.8 0.712269
3.75 0.8 0.714166
3.8 0.8 0.716037
3.85 0.8 0.717879
3.9 0.8 0.719693
3.95 0.8 0.721476
4 0.8 0.723229
4.05 0.8 0.724952
4.1 0.8 0.726643
4.15 0.8 0.728303
4.2 0.8 0.729932
4.25 0.8 0.731529
4.3 0.8 0.733095
4.35 0.8 0.73463
4.4 0.8 0.736134
4.45 0.8 0.737608
4.5 0.8 0.73905
4.55 0.8 0.740463
4.6 0.8 0.741845
4.65 0.8 0.743199
4.7 0.8 0.744523
4.75 0.8 0.745818
4.8 0.8 0.747085
4.85 0.8 0.748325
4.9 0.8 0.749536
4.95 0.8 0.750721
5 0.8 0.75188
5.05 0.8 0.753012
5.1 0.8 0.754119
5.15 0.8 0.755201
5.2 0.8 0.756258
5.25 0.8 0.757292
5.3 0.8 0.758301
5.35 0.8 0.759288
5.4 0.8 0.760252
5.45 0.8 0.761195
5.5 0.8 0.762119
5.55 0.8 0.763026
5.6 0.8 0.763926
5.65 0.8 0.764833
5.7 0.8 0.765787
5.75 0.8 0.766876
5.8 0.8 0.768299
5.85 0.8 0.770511
5.9 0.8 0.774542
5.95 0.8 0.782686
6 0.8 0.8
0 0.75 0.583333
0.05 0.75 0.583333
0.1 0.75 0.583333
0.15 0.75 0.583333
0.2 0.75 0.583333
0.25 0.75 0.583333
0.3 0.75 0.583333
0.35 0.75 0.583333
0.4 0.75 0.583333
0.45 0.75 0.583333
0.5 0.75 0.583333
0.55 0.75 0.583333
0.6 0.75 0.583333
0.65 0.75 0.583333
0.7 0.75 0.583333
0.75 0.75 0.583333
0.8 0.75 0.583333
0.85 0.75 0.583333
0.9 0.75 0.583333
0.95 0.75 0.583333
1 0.75 0.583333
1.05 0.75 0.583333
1.1 0.75 0.583333
1.15 0.75 0.583333
1.2 0.75 0.583333
1.25 0.75 0.583333
1.3 0.75 0.583333
1.35 0.75 0.583333
1.4 0.75 0.583333
1.45 0.75 0.583333
1.5 0.75 0.583333
1.55 0.75 0.583333
1.6 0.75 0.583333
1.65 0.75 0.583333
1.7 0.75 0.583334
1.75 0.75 0.583334
1.8 0.75 0.583335
1.85 0.75 0.583336
1.9 0.75 0.583339
1.95 0.75 0.583346
2 0.75 0.583359
2.05 0.75 0.583384
2.1 0.75 0.583432
2.15 0.75 0.58352
2.2 0.75 0.583674
2.25 0.75 0.583934
2.3 0.75 0.584347
2.35 0.75 0.58496
2.4 0.75 0.585811
2.45 0.75 0.586913
2.5 0.75 0.588259
2.55 0.75 0.58983
2.6 0.75 0.591601
2.65 0.75 0.593544
2.7 0.75 0.595634
2.75 0.75 0.597846
2.8 0.75 0.600157
2.85 0.75 0.602549
2.9 0.75 0.605005
2.95 0.75 0.607509
3 0.75 0.610049
3.05 0.75 0.612614
3.1 0.75 0.615193
3.15 0.75 0.617779
3.2 0.75 0.620364
3.25 0.75 0.622943
3.3 0.75 0.625508
3.35 0.75 0.628057
3.4 0.75 0.630585
3.45 0.75 0.633088
3.5 0.75 0.635564
3.55 0.75 0.63801
3.6 0.75 0.640424
3.65 0.75 0.642805
3.7 0.75 0.64515
3.75 0.75 0.647459
3.8 0.75 0.64973
3.85 0.75 0.651963
3.9 0.75 0.654158
3.95 0.75 0.656313
4 0.75 0.658429
4.05 0.75 0.660506
4.1 0.75 0.662543
4.15 0.75 0.66454
4.2 0.75 0.666498
4.25 0.75 0.668417
4.3 0.75 0.670296
4.35 0.75 0.672137
4.4 0.75 0.673939
4.45 0.75 0.675704
4.5 0.75 0.677431
4.55 0.75 0.679121
4.6 0.75 0.680775
4.65 0.75 0.682393
4.7 0.75 0.683975
4.75 0.75 0.685522
4.8 0.75 0.687036
4.85 0.75 0.688515
4.9 0.75 0.689961
4.95 0.75 0.691375
5 0.75 0.692757
5.05 0.75 0.694107
5.1 0.75 0.695427
5.15 0.75 0.696716
5.2 0.75 0.697976
5.25 0.75 0.699207
5.3 0.75 0.70041
5.35 0.75 0.701586
5.4 0.75 0.702734
5.45 0.75 0.703858
5.5 0.75 0.704959
5.55 0.75 0.706041
5.6 0.75 0.707117
5.65 0.75 0.708207
5.7 0.75 0.709363
5.75 0.75 0.710696
5.8 0.75 0.712455
5.85 0.75 0.715192
5.9 0.75 0.720113
5.95 0.75 0.729838
6 0.75 0.75
0 0.7 0.5
0.05 0.7 0.5
0.1 0.7 0.5
0.15 0.7 0.5
0.2 0.7 0.5
0.25 0.7 0.5
0.3 0.7 0.5
0.35 0.7 0.5
0.4 0.7 0.5
0.45 0.7 0.5
0.5 0.7 0.5
0.55 0.7 0.5
0.6 0.7 0.5
0.65 0.7 0.5
0.7 0.7 0.5
0.75 0.7 0.5
0.8 0.7 0.5
0.85 0.7 0.5
0.9 0.7 0.5
0.95 0.7 0.5
1 0.7 0.5
1.05 0.7 0.5
1.1 0.7 0.5
1.15 0.7 0.5
1.2 0.7 0.5
1.25 0.7 0.5
1.3 0.7 0.5
1.35 0.7 0.5
1.4 0.7 0.5
1.45 0.7 0.5
1.5 0.7 0.5
1.55 0.7 0.5
1.6 0.7 0.5
1.65 0.7 0.5
1.7 0.7 0.500001
1.75 0.7 0.500001
1.8 0.7 0.500003
1.85 0.7 0.500006
1.9 0.7 0.500013
1.95 0.7 0.500027
2 0.7 0.500056
2.05 0.7 0.500114
2.1 0.7 0.500224
2.15 0.7 0.500428
2.2 0.7 0.500786
2.25 0.7 0.501377
2.3 0.7 0.502282
2.35 0.7 0.503554
2.4 0.7 0.505191
2.45 0.7 0.507158
2.5 0.7 0.509408
2.55 0.7 0.51189
2.6 0.7 0.514557
2.65 0.7 0.517372
2.7 0.7 0.520301
2.75 0.7 0.523316
2.8 0.7 0.526396
2.85 0.7 0.52952
2.9 0.7 0.532674
2.95 0.7 0.535844
3 0.7 0.539019
3.05 0.7 0.542191
3.1 0.7 0.545352
3.15 0.7 0.548495
3.2 0.7 0.551615
3.25 0.7 0.554706
3.3 0.7 0.557766
3.35 0.7 0.56079
3.4 0.7 0.563776
3.45 0.7 0.566722
3.5 0.7 0.569626
3.55 0.7 0.572485
3.6 0.7 0.575299
3.65 0.7 0.578067
3.7 0.7 0.580788
3.75 0.7 0.583461
3.8 0.7 0.586086
3.85 0.7 0.588662
3.9 0.7 0.59119
3.95 0.7 0.593669
4 0.7 0.5961
4.05 0.7 0.598482
4.1 0.7 0.600817
4.15 0.7 0.603103
4.2 0.7 0.605343
4.25 0.7 0.607535
4.3 0.7 0.609682
4.35 0.7 0.611783
4.4 0.7 0.613838
4.45 0.7 0.615849
4.5 0.7 0.617817
4.55 0.7 0.619741
4.6 0.7 0.621622
4.65 0.7 0.623462
4.7 0.7 0.625261
4.75 0.7 0.62702
4.8 0.7 0.628739
4.85 0.7 0.630419
4.9 0.7 0.632061
4.95 0.7 0.633665
5 0.7 0.635233
5.05 0.7 0.636765
5.1 0.7 0.638261
5.15 0.7 0.639724
5.2 0.7 0.641152
5.25 0.7 0.642547
5.3 0.7 0.64391
5.35 0.7 0.645242
5.4 0.7 0.646544
5.45 0.7 0.647817
5.5 0.7 0.649065
5.55 0.7 0.650294
5.6 0.7 0.651517
5.65 0.7 0.652762
5.7 0.7 0.65409
5.75 0.7 0.655636
5.8 0.7 0.65769
5.85 0.7 0.66088
5.9 0.7 0.666553
5.95 0.7 0.677576
6 0.7 0.7
0 0.65 0.416667
0.05 0.65 0.416667
0.1 0.65 0.416667
0.15 0.65 0.416667
0.2 0.65 0.416667
0.25 0.65 0.416667
0.3 0.65 0.416667
0.35 0.65 0.416667
0.4 0.65 0.416667
0.45 0.65 0.416667
0.5 0.65 0.416667
0.55 0.65 0.416667
0.6 0.65 0.416667
0.65 0.65 0.416667
0.7 0.65 0.416667
0.75 0.65 0.416667
0.8 0.65 0.416667
0.85 0.65 0.416667
0.9 0.65 0.416667
0.95 0.65 0.416667
1 0.65 0.416667
1.05 0.65 0.416667
1.1 0.65 0.416667
1.15 0.65 0.416667
1.2 0.65 0.416667
1.25 0.65 0.416667
1.3 0.65 0.416667
1.35 0.65 0.416667
1.4 0.65 0.416667
1.45 0.65 0.416667
1.5 0.65 0.416667
1.55 0.65 0.416667
1.6 0.65 0.416667
1.65 0.65 0.416667
1.7 0.65 0.416668
1.75 0.65 0.416669
1.8 0.65 0.416672
1.85 0.65 0.416679
1.9 0.65 0.416694
1.95 0.65 0.416725
2 0.65 0.41679
2.05 0.65 0.416923
2.1 0.65 0.417182
2.15 0.65 0.417665
2.2 0.65 0.418507
2.25 0.65 0.419851
2.3 0.65 0.421781
2.35 0.65 0.424239
2.4 0.65 0.427122
2.45 0.65 0.430326
2.5 0.65 0.433763
2.55 0.65 0.437367
2.6 0.65 0.441086
2.65 0.65 0.444882
2.7 0.65 0.448723
2.75 0.65 0.452589
2.8 0.65 0.456461
2.85 0.65 0.460326
2.9 0.65 0.464173
2.95 0.65 0.467993
3 0.65 0.471781
3.05 0.65 0.475529
3.1 0.65 0.479234
3.15 0.65 0.482893
3.2 0.65 0.486502
3.25 0.65 0.490058
3.3 0.65 0.493561
3.35 0.65 0.497008
3.4 0.65 0.500399
3.45 0.65 0.503731
3.5 0.65 0.507005
3.55 0.65 0.510221
3.6 0.65 0.513377
3.65 0.65 0.516474
3.7 0.65 0.519512
3.75 0.65 0.52249
3.8 0.65 0.52541
3.85 0.65 0.528271
3.9 0.65 0.531073
3.95 0.65 0.533818
4 0.65 0.536506
4.05 0.65 0.539138
4.1 0.65 0.541714
4.15 0.65 0.544234
4.2 0.65 0.5467
4.25 0.65 0.549113
4.3 0.65 0.551473
4.35 0.65 0.553781
4.4 0.65 0.556038
4.45 0.65 0.558245
4.5 0.65 0.560402
4.55 0.65 0.562511
4.6 0.65 0.564573
4.65 0.65 0.566588
4.7 0.65 0.568557
4.75 0.65 0.570481
4.8 0.65 0.572361
4.85 0.65 0.574197
4.9 0.65 0.575992
4.95 0.65 0.577745
5 0.65 0.579458
5.05 0.65 0.581131
5.1 0.65 0.582765
5.15 0.65 0.584361
5.2 0.65 0.585919
5.25 0.65 0.587442
5.3 0.65 0.588929
5.35 0.65 0.590382
5.4 0.65 0.591801
5.45 0.65 0.59319
5.5 0.65 0.594552
5.55 0.65 0.595895
5.6 0.65 0.597234
5.65 0.65 0.598602
5.7 0.65 0.60007
5.75 0.65 0.60179
5.8 0.65 0.604085
5.85 0.65 0.607644
5.9 0.65 0.613915
5.95 0.65 0.625931
6 0.65 0.65
0 0.6 0.333333
0.05 0.6 0.333333
0.1 0.6 0.333333
0.15 0.6 0.333333
0.2 0.6 0.333333
0.25 0.6 0.333333
0.3 0.6 0.333333
0.35 0.6 0.333333
0.4 0.6 0.333333
0.45 0.6 0.333333
0.5 0.6 0.333333
0.55 0.6 0.333333
0.6 0.6 0.333333
0.65 0.6 0.333333
0.7 0.6 0.333333
0.75 0.6 0.333333
0.8 0.6 0.333333
0.85 0.6 0.333333
0.9 0.6 0.333333
0.95 0.6 0.333333
1 0.6 0.333333
1.05 0.6 0.333333
1.1 0.6 0.333333
1.15 0.6 0.333333
1.2 0.6 0.333333
1.25 0.6 0.333333
1.3 0.6 0.333333
1.35 0.6 0.333333
1.4 0.6 0.333333
1.45 0.6 0.333333
1.5 0.6 0.333333
1.55 0.6 0.333333
1.6 0.6 0.333334
1.65 0.6 0.333334
1.7 0.6 0.333335
1.75 0.6 0.333338
1.8 0.6 0.333344
1.85 0.6 0.333358
1.9 0.6 0.333388
1.95 0.6 0.333457
2 0.6 0.333605
2.05 0.6 0.333918
2.1 0.6 0.334544
2.15 0.6 0.335723
2.2 0.6 0.337741
2.25 0.6 0.34075
2.3 0.6 0.344501
2.35 0.6 0.348733
2.4 0.6 0.353259
2.45 0.6 0.357951
2.5 0.6 0.362729
2.55 0.6 0.367539
2.6 0.6 0.372344
2.65 0.6 0.377122
2.7 0.6 0.381856
2.75 0.6 0.386534
2.8 0.6 0.39115
2.85 0.6 0.395699
2.9 0.6 0.400176
2.95 0.6 0.40458
3 0.6 0.40891
3.05 0.6 0.413163
3.1 0.6 0.41734
3.15 0.6 0.421441
3.2 0.6 0.425465
3.25 0.6 0.429412
3.3 0.6 0.433283
3.35 0.6 0.437078
3.4 0.6 0.440799
3.45 0.6 0.444444
3.5 0.6 0.448016
3.55 0.6 0.451514
3.6 0.6 0.45494
3.65 0.6 0.458294
3.7 0.6 0.461578
3.75 0.6 0.464792
3.8 0.6 0.467937
3.85 0.6 0.471014
3.9 0.6 0.474025
3.95 0.6 0.476969
4 0.6 0.479849
4.05 0.6 0.482666
4.1 0.6 0.48542
4.15 0.6 0.488112
4.2 0.6 0.490744
4.25 0.6 0.493317
4.3 0.6 0.495831
4.35 0.6 0.498289
4.4 0.6 0.50069
4.45 0.6 0.503037
4.5 0.6 0.50533
4.55 0.6 0.50757
4.6 0.6 0.509759
4.65 0.6 0.511897
4.7 0.6 0.513986
4.75 0.6 0.516026
4.8 0.6 0.518019
4.85 0.6 0.519965
4.9 0.6 0.521866
4.95 0.6 0.523722
5 0.6 0.525536
5.05 0.6 0.527306
5.1 0.6 0.529035
5.15 0.6 0.530724
5.2 0.6 0.532372
5.25 0.6 0.533982
5.3 0.6 0.535555
5.35 0.6 0.53709
5.4 0.6 0.538591
5.45 0.6 0.54006
5.5 0.6 0.541501
5.55 0.6 0.542922
5.6 0.6 0.544342
5.65 0.6 0.545798
5.7 0.6 0.547369
5.75 0.6 0.549219
5.8 0.6 0.551698
5.85 0.6 0.555532
5.9 0.6 0.562233
5.95 0.6 0.574921
6 0.6 0.6
0 0.55 0.25
0.05 0.55 0.25
0.1 0.55 0.25
0.15 0.55 0.25
0.2 0.55 0.25
0.25 0.55 0.25
0.3 0.55 0.25
0.35 0.55 0.25
0.4 0.55 0.25
0.45 0.55 0.25
0.5 0.55 0.25
0.55 0.55 0.25
0.6 0.55 0.25
0.65 0.55 0.25
0.7 0.55 0.25
0.75 0.55 0.25
0.8 0.55 0.25
0.85 0.55 0.25
0.9 0.55 0.25
0.95 0.55 0.25
1 0.55 0.25
1.05 0.55 0.25
1.1 0.55 0.25
1.15 0.55 0.25
1.2 0.55 0.25
1.25 0.55 0.25
1.3 0.55 0.25
1.35 0.55 0.25
1.4 0.55 0.25
1.45 0.55 0.25
1.5 0.55 0.25
1.55 0.55 0.25
1.6 0.55 0.250001
1.65 0.55 0.250001
1.7 0.55 0.250003
1.75 0.55 0.250008
1.8 0.55 0.250019
1.85 0.55 0.250046
1.9 0.55 0.250109
1.95 0.55 0.250257
2 0.55 0.250598
2.05 0.55 0.251354
2.1 0.55 0.252943
2.15 0.55 0.255983
2.2 0.55 0.260907
2.25 0.55 0.26674
2.3 0.55 0.272935
2.35 0.55 0.279227
2.4 0.55 0.285491
2.45 0.55 0.291664
2.5 0.55 0.297715
2.55 0.55 0.303631
2.6 0.55 0.309406
2.65 0.55 0.315043
2.7 0.55 0.320541
2.75 0.55 0.325907
2.8 0.55 0.331142
2.85 0.55 0.336253
2.9 0.55 0.341242
2.95 0.55 0.346115
3 0.55 0.350874
3.05 0.55 0.355523
3.1 0.55 0.360065
3.15 0.55 0.364504
3.2 0.55 0.368842
3.25 0.55 0.373081
3.3 0.55 0.377224
3.35 0.55 0.381273
3.4 0.55 0.385231
3.45 0.55 0.389099
3.5 0.55 0.39288
3.55 0.55 0.396575
3.6 0.55 0.400186
3.65 0.55 0.403714
3.7 0.55 0.407163
3.75 0.55 0.410532
3.8 0.55 0.413825
3.85 0.55 0.417042
3.9 0.55 0.420185
3.95 0.55 0.423256
4 0.55 0.426256
4.05 0.55 0.429187
4.1 0.55 0.43205
4.15 0.55 0.434846
4.2 0.55 0.437578
4.25 0.55 0.440246
4.3 0.55 0.442852
4.35 0.55 0.445397
4.4 0.55 0.447883
4.45 0.55 0.45031
4.5 0.55 0.45268
4.55 0.55 0.454995
4.6 0.55 0.457256
4.65 0.55 0.459463
4.7 0.55 0.461618
4.75 0.55 0.463723
4.8 0.55 0.465778
4.85 0.55 0.467784
4.9 0.55 0.469743
4.95 0.55 0.471656
5 0.55 0.473523
5.05 0.55 0.475346
5.1 0.55 0.477126
5.15 0.55 0.478864
5.2 0.55 0.480561
5.25 0.55 0.482217
5.3 0.55 0.483835
5.35 0.55 0.485414
5.4 0.55 0.486958
5.45 0.55 0.488469
5.5 0.55 0.489952
5.55 0.55 0.491416
5.6 0.55 0.492881
5.65 0.55 0.494388
5.7 0.55 0.496022
5.75 0.55 0.497956
5.8 0.55 0.500554
5.85 0.55 0.504564
5.9 0.55 0.511522
5.95 0.55 0.524554
6 0.55 0.55
0 0.5 0.166667
0.05 0.5 0.166667
0.1 0.5 0.166667
0.15 0.5 0.166667
0.2 0.5 0.166667
0.25 0.5 0.166667
0.3 0.5 0.166667
0.35 0.5 0.166667
0.4 0.5 0.166667
0.45 0.5 0.166667
0.5 0.5 0.166667
0.55 0.5 0.166667
0.6 0.5 0.166667
0.65 0.5 0.166667
0.7 0.5 0.166667
0.75 0.5 0.166667
0.8 0.5 0.166667
0.85 0.5 0.166667
0.9 0.5 0.166667
0.95 0.5 0.166667
1 0.5 0.166667
1.05 0.5 0.166667
1.1 0.5 0.166667
1.15 0.5 0.166667
1.2 0.5 0.166667
1.25 0.5 0.166667
1.3 0.5 0.166667
1.35 0.5 0.166667
1.4 0.5 0.166667
1.45 0.5 0.166667
1.5 0.5 0.166667
1.55 0.5 0.166667
1.6 0.5 0.166667
1.65 0.5 0.166669
1.7 0.5 0.166671
1.75 0.5 0.166679
1.8 0.5 0.166697
1.85 0.5 0.166744
1.9 0.5 0.166865
1.95 0.5 0.167174
2 0.5 0.167958
2.05 0.5 0.16989
2.1 0.5 0.174358
2.15 0.5 0.183166
2.2 0.5 0.192368
2.25 0.5 0.201269
2.3 0.5 0.209751
2.35 0.5 0.217816
2.4 0.5 0.225498
2.45 0.5 0.232835
2.5 0.5 0.239862
2.55 0.5 0.246608
2.6 0.5 0.2531
2.65 0.5 0.259361
2.7 0.5 0.265409
2.75 0.5 0.27126
2.8 0.5 0.276928
2.85 0.5 0.282425
2.9 0.5 0.287762
2.95 0.5 0.292948
3 0.5 0.297989
3.05 0.5 0.302894
3.1 0.5 0.307668
3.15 0.5 0.312317
3.2 0.5 0.316846
3.25 0.5 0.321259
3.3 0.5 0.32556
3.35 0.5 0.329753
3.4 0.5 0.333842
3.45 0.5 0.33783
3.5 0.5 0.341719
3.55 0.5 0.345513
3.6 0.5 0.349215
3.65 0.5 0.352826
3.7 0.5 0.35635
3.75 0.5 0.359788
3.8 0.5 0.363144
3.85 0.5 0.366418
3.9 0.5 0.369614
3.95 0.5 0.372732
4 0.5 0.375776
4.05 0.5 0.378747
4.1 0.5 0.381646
4.15 0.5 0.384476
4.2 0.5 0.387238
4.25 0.5 0.389934
4.3 0.5 0.392565
4.35 0.5 0.395133
4.4 0.5 0.39764
4.45 0.5 0.400087
4.5 0.5 0.402475
4.55 0.5 0.404806
4.6 0.5 0.407081
4.65 0.5 0.409302
4.7 0.5 0.41147
4.75 0.5 0.413586
4.8 0.5 0.415651
4.85 0.5 0.417667
4.9 0.5 0.419635
4.95 0.5 0.421556
5 0.5 0.42343
5.05 0.5 0.42526
5.1 0.5 0.427046
5.15 0.5 0.42879
5.2 0.5 0.430491
5.25 0.5 0.432153
5.3 0.5 0.433775
5.35 0.5 0.435359
5.4 0.5 0.436907
5.45 0.5 0.438422
5.5 0.5 0.439909
5.55 0.5 0.44138
5.6 0.5 0.442854
5.65 0.5 0.444375
5.7 0.5 0.44603
5.75 0.5 0.447999
5.8 0.5 0.450651
5.85 0.5 0.454736
5.9 0.5 0.461773
5.95 0.5 0.474821
6 0.5 0.5
0 0.45 0.0833333
0.05 0.45 0.0833333
0.1 0.45 0.0833333
0.15 0.45 0.0833333
0.2 0.45 0.0833333
0.25 0.45 0.0833333
0.3 0.45 0.0833333
0.35 0.45 0.0833333
0.4 0.45 0.0833333
0.45 0.45 0.0833333
0.5 0.45 0.0833333
0.55 0.45 0.0833333
0.6 0.45 0.0833333
0.65 0.45 0.0833333
0.7 0.45 0.0833333
0.75 0.45 0.0833333
0.8 0.45 0.0833333
0.85 0.45 0.0833333
0.9 0.45 0.0833333
0.95 0.45 0.0833333
1 0.45 0.0833333
1.05 0.45 0.0833333
1.1 0.45 0.0833333
1.15 0.45 0.0833333
1.2 0.45 0.0833333
1.25 0.45 0.0833333
1.3 0.45 0.0833333
1.35 0.45 0.0833333
1.4 0.45 0.0833334
1.45 0.45 0.0833334
1.5 0.45 0.0833335
1.55 0.45 0.0833336
1.6 0.45 0.0833341
1.65 0.45 0.0833352
1.7 0.45 0.0833383
1.75 0.45 0.0833465
1.8 0.45 0.083369
1.85 0.45 0.0834326
1.9 0.45 0.083617
1.95 0.45 0.0841705
2 0.45 0.0858905
2.05 0.45 0.0914334
2.1 0.45 0.109953
2.15 0.45 0.12413
2.2 0.45 0.136219
2.25 0.45 0.146982
2.3 0.45 0.156787
2.35 0.45 0.165851
2.4 0.45 0.174318
2.45 0.45 0.182289
2.5 0.45 0.18984
2.55 0.45 0.197026
2.6 0.45 0.203892
2.65 0.45 0.210472
2.7 0.45 0.216795
2.75 0.45 0.222884
2.8 0.45 0.228759
2.85 0.45 0.234434
2.9 0.45 0.239924
2.95 0.45 0.245242
3 0.45 0.250396
3.05 0.45 0.255396
3.1 0.45 0.26025
3.15 0.45 0.264966
3.2 0.45 0.269548
3.25 0.45 0.274004
3.3 0.45 0.278337
3.35 0.45 0.282554
3.4 0.45 0.286658
3.45 0.45 0.290654
3.5 0.45 0.294544
3.55 0.45 0.298334
3.6 0.45 0.302025
3.65 0.45 0.305622
3.7 0.45 0.309127
3.75 0.45 0.312543
3.8 0.45 0.315873
3.85 0.45 0.319119
3.9 0.45 0.322283
3.95 0.45 0.325369
4 0.45 0.328378
4.05 0.45 0.331312
4.1 0.45 0.334173
4.15 0.45 0.336964
4.2 0.45 0.339686
4.25 0.45 0.342341
4.3 0.45 0.344931
4.35 0.45 0.347457
4.4 0.45 0.349922
4.45 0.45 0.352326
4.5 0.45 0.354672
4.55 0.45 0.356961
4.6 0.45 0.359194
4.65 0.45 0.361373
4.7 0.45 0.363499
4.75 0.45 0.365574
4.8 0.45 0.367598
4.85 0.45 0.369574
4.9 0.45 0.371501
4.95 0.45 0.373382
5 0.45 0.375218
5.05 0.45 0.377009
5.1 0.45 0.378757
5.15 0.45 0.380463
5.2 0.45 0.382128
5.25 0.45 0.383753
5.3 0.45 0.385339
5.35 0.45 0.386888
5.4 0.45 0.388402
5.45 0.45 0.389884
5.5 0.45 0.39134
5.55 0.45 0.392781
5.6 0.45 0.394228
5.65 0.45 0.395725
5.7 0.45 0.397361
5.75 0.45 0.399317
5.8 0.45 0.401958
5.85 0.45 0.406016
5.9 0.45 0.412958
5.95 0.45 0.425701
6 0.45 0.45
0 0.4 0
0.05 0.4 0
0.1 0.4 0
0.15 0.4 0
0.2 0.4 0
0.25 0.4 0
0.3 0.4 0
0.35 0.4 0
0.4 0.4 0
0.45 0.4 0
0.5 0.4 0
0.55 0.4 0
0.6 0.4 0
0.65 0.4 0
0.7 0.4 0
0.75 0.4 0
0.8 0.4 0
0.85 0.4 0
0.9 0.4 0
0.95 0.4 0
1 0.4 0
1.05 0.4 0
1.1 0.4 0
1.15 0.4 0
1.2 0.4 0
1.25 0.4 0
1.3 0.4 0
1.35 0.4 0
1.4 0.4 0
1.45 0.4 0
1.5 0.4 0
1.55 0.4 0
1.6 0.4 0
1.65 0.4 0
1.7 0.4 0
1.75 0.4 0
1.8 0.4 0
1.85 0.4 0
1.9 0.4 0
1.95 0.4 0
2 0.4 0
2.05 0.4 0.0498907
2.1 0.4 0.0671823
2.15 0.4 0.0813972
2.2 0.4 0.0936535
2.25 0.4 0.104563
2.3 0.4 0.114482
2.35 0.4 0.123633
2.4 0.4 0.132164
2.45 0.4 0.140183
2.5 0.4 0.147765
2.55 0.4 0.154969
2.6 0.4 0.161841
2.65 0.4 0.168416
2.7 0.4 0.174724
2.75 0.4 0.180788
2.8 0.4 0.186627
2.85 0.4 0.19226
2.9 0.4 0.197699
2.95 0.4 0.202957
3 0.4 0.208045
3.05 0.4 0.212972
3.1 0.4 0.217747
3.15 0.4 0.222378
3.2 0.4 0.22687
3.25 0.4 0.231232
3.3 0.4 0.235467
3.35 0.4 0.239583
3.4 0.4 0.243582
3.45 0.4 0.247471
3.5 0.4 0.251252
3.55 0.4 0.254931
3.6 0.4 0.25851
3.65 0.4 0.261994
3.7 0.4 0.265385
3.75 0.4 0.268686
3.8 0.4 0.271901
3.85 0.4 0.275032
3.9 0.4 0.278082
3.95 0.4 0.281054
4 0.4 0.283949
4.05 0.4 0.286771
4.1 0.4 0.28952
4.15 0.4 0.292201
4.2 0.4 0.294813
4.25 0.4 0.29736
4.3 0.4 0.299843
4.35 0.4 0.302264
4.4 0.4 0.304625
4.45 0.4 0.306927
4.5 0.4 0.309172
4.55 0.4 0.311362
4.6 0.4 0.313498
4.65 0.4 0.315581
4.7 0.4 0.317612
4.75 0.4 0.319595
4.8 0.4 0.321528
4.85 0.4 0.323414
4.9 0.4 0.325254
4.95 0.4 0.32705
5 0.4 0.328801
5.05 0.4 0.33051
5.1 0.4 0.332178
5.15 0.4 0.333805
5.2 0.4 0.335392
5.25 0.4 0.336942
5.3 0.4 0.338454
5.35 0.4 0.339931
5.4 0.4 0.341374
5.45 0.4 0.342787
5.5 0.4 0.344176
5.55 0.4 0.345552
5.6 0.4 0.346937
5.65 0.4 0.348374
5.7 0.4 0.349952
5.75 0.4 0.351848
5.8 0.4 0.354412
5.85 0.4 0.358344
5.9 0.4 0.365024
5.95 0.4 0.377155
6 0.4 0.4
0 0.35 0
0.05 0.35 0
0.1 0.35 0
0.15 0.35 0
0.2 0.35 0
0.25 0.35 0
0.3 0.35 0
0.35 0.35 0
0.4 0.35 0
0.45 0.35 0
0.5 0.35 0
0.55 0.35 0
0.6 0.35 0
0.65 0.35 0
0.7 0.35 0
0.75 0.35 0
0.8 0.35 0
0.85 0.35 0
0.9 0.35 0
0.95 0.35 0
1 0.35 0
1.05 0.35 0
1.1 0.35 0
1.15 0.35 0
1.2 0.35 0
1.25 0.35 0
1.3 0.35 0
1.35 0.35 0
1.4 0.35 0
1.45 0.35 0
1.5 0.35 0
1.55 0.35 0
1.6 0.35 0
1.65 0.35 0
1.7 0.35 0
1.75 0.35 0
1.8 0.35 0
1.85 0.35 0
1.9 0.35 0
1.95 0.35 0
2 0.35 0
2.05 0.35 0.0274882
2.1 0.35 0.040623
2.15 0.35 0.0524339
2.2 0.35 0.0631358
2.25 0.35 0.0729459
2.3 0.35 0.0820335
2.35 0.35 0.0905243
2.4 0.35 0.0985119
2.45 0.35 0.106067
2.5 0.35 0.113244
2.55 0.35 0.120087
2.6 0.35 0.126628
2.65 0.35 0.132897
2.7 0.35 0.138915
2.75 0.35 0.144704
2.8 0.35 0.150279
2.85 0.35 0.155654
2.9 0.35 0.160842
2.95 0.35 0.165854
3 0.35 0.1707
3.05 0.35 0.175388
3.1 0.35 0.179927
3.15 0.35 0.184324
3.2 0.35 0.188586
3.25 0.35 0.192718
3.3 0.35 0.196727
3.35 0.35 0.200618
3.4 0.35 0.204395
3.45 0.35 0.208063
3.5 0.35 0.211627
3.55 0.35 0.215091
3.6 0.35 0.218458
3.65 0.35 0.221731
3.7 0.35 0.224915
3.75 0.35 0.228013
3.8 0.35 0.231027
3.85 0.35 0.23396
3.9 0.35 0.236815
3.95 0.35 0.239595
4 0.35 0.242301
4.05 0.35 0.244937
4.1 0.35 0.247505
4.15 0.35 0.250006
4.2 0.35 0.252443
4.25 0.35 0.254818
4.3 0.35 0.257131
4.35 0.35 0.259387
4.4 0.35 0.261585
4.45 0.35 0.263728
4.5 0.35 0.265817
4.55 0.35 0.267853
4.6 0.35 0.269839
4.65 0.35 0.271775
4.7 0.35 0.273664
4.75 0.35 0.275505
4.8 0.35 0.277301
4.85 0.35 0.279053
4.9 0.35 0.280761
4.95 0.35 0.282428
5 0.35 0.284053
5.05 0.35 0.285639
5.1 0.35 0.287186
5.15 0.35 0.288695
5.2 0.35 0.290168
5.25 0.35 0.291605
5.3 0.35 0.293007
5.35 0.35 0.294377
5.4 0.35 0.295715
5.45 0.35 0.297026
5.5 0.35 0.298316
5.55 0.35 0.299594
5.6 0.35 0.300884
5.65 0.35 0.302228
5.7 0.35 0.30371
5.75 0.35 0.305499
5.8 0.35 0.307926
5.85 0.35 0.311639
5.9 0.35 0.317898
5.95 0.35 0.329135
6 0.35 0.35
0 0.3 0
0.05 0.3 0
0.1 0.3 0
0.15 0.3 0
0.2 0.3 0
0.25 0.3 0
0.3 0.3 0
0.35 0.3 0
0.4 0.3 0
0.45 0.3 0
0.5 0.3 0
0.55 0.3 0
0.6 0.3 0
0.65 0.3 0
0.7 0.3 0
0.75 0.3 0
0.8 0.3 0
0.85 0.3 0
0.9 0.3 0
0.95 0.3 0
1 0.3 0
1.05 0.3 0
1.1 0.3 0
1.15 0.3 0
1.2 0.3 0
1.25 0.3 0
1.3 0.3 0
1.35 0.3 0
1.4 0.3 0
1.45 0.3 0
1.5 0.3 0
1.55 0.3 0
1.6 0.3 0
1.65 0.3 0
1.7 0.3 0
1.75 0.3 0
1.8 0.3 0
1.85 0.3 0
1.9 0.3 0
1.95 0.3 0
2 0.3 0
2.05 0.3 0.0153876
2.1 0.3 0.0245796
2.15 0.3 0.0335099
2.2 0.3 0.0420509
2.25 0.3 0.0501816
2.3 0.3 0.0579192
2.35 0.3 0.065292
2.4 0.3 0.0723295
2.45 0.3 0.0790591
2.5 0.3 0.0855048
2.55 0.3 0.0916878
2.6 0.3 0.0976266
2.65 0.3 0.103337
2.7 0.3 0.108834
2.75 0.3 0.114129
2.8 0.3 0.119235
2.85 0.3 0.124161
2.9 0.3 0.128917
2.95 0.3 0.133512
3 0.3 0.137954
3.05 0.3 0.142249
3.1 0.3 0.146406
3.15 0.3 0.15043
3.2 0.3 0.154328
3.25 0.3 0.158105
3.3 0.3 0.161766
3.35 0.3 0.165316
3.4 0.3 0.16876
3.45 0.3 0.172103
3.5 0.3 0.175347
3.55 0.3 0.178498
3.6 0.3 0.181559
3.65 0.3 0.184533
3.7 0.3 0.187423
3.75 0.3 0.190233
3.8 0.3 0.192966
3.85 0.3 0.195623
3.9 0.3 0.198209
3.95 0.3 0.200724
4 0.3 0.203173
4.05 0.3 0.205556
4.1 0.3 0.207876
4.15 0.3 0.210135
4.2 0.3 0.212336
4.25 0.3 0.214479
4.3 0.3 0.216566
4.35 0.3 0.2186
4.4 0.3 0.220582
4.45 0.3 0.222513
4.5 0.3 0.224396
4.55 0.3 0.22623
4.6 0.3 0.228018
4.65 0.3 0.229762
4.7 0.3 0.231461
4.75 0.3 0.233118
4.8 0.3 0.234734
4.85 0.3 0.23631
4.9 0.3 0.237847
4.95 0.3 0.239345
5 0.3 0.240807
5.05 0.3 0.242232
5.1 0.3 0.243623
5.15 0.3 0.244979
5.2 0.3 0.246303
5.25 0.3 0.247594
5.3 0.3 0.248854
5.35 0.3 0.250085
5.4 0.3 0.251288
5.45 0.3 0.252466
5.5 0.3 0.253626
5.55 0.3 0.254778
5.6 0.3 0.255943
5.65 0.3 0.257162
5.7 0.3 0.258514
5.75 0.3 0.260155
5.8 0.3 0.262388
5.85 0.3 0.265795
5.9 0.3 0.271489
5.95 0.3 0.281578
6 0.3 0.3
0 0.25 0
0.05 0.25 0
0.1 0.25 0
0.15 0.25 0
0.2 0.25 0
0.25 0.25 0
0.3 0.25 0