variables=x,y,psi
zone i=161	,j= 21 ,f=point
0 1 1.000000
0.050000 1.000000 1.000000
0.100000 1.000000 1.000000
0.150000 1.000000 1.000000
0.200000 1.000000 1.000000
0.250000 1.000000 1.000000
0.300000 1.000000 1.000000
0.350000 1.000000 1.000000
0.400000 1.000000 1.000000
0.450000 1.000000 1.000000
0.500000 1.000000 1.000000
0.550000 1.000000 1.000000
0.600000 1.000000 1.000000
0.650000 1.000000 1.000000
0.700000 1.000000 1.000000
0.750000 1.000000 1.000000
0.800000 1.000000 1.000000
0.850000 1.000000 1.000000
0.900000 1.000000 1.000000
0.950000 1.000000 1.000000
1.000000 1.000000 1.000000
1.050000 1.000000 1.000000
1.100000 1.000000 1.000000
1.150000 1.000000 1.000000
1.200000 1.000000 1.000000
1.250000 1.000000 1.000000
1.300000 1.000000 1.000000
1.350000 1.000000 1.000000
1.400000 1.000000 1.000000
1.450000 1.000000 1.000000
1.500000 1.000000 1.000000
1.550000 1.000000 1.000000
1.600000 1.000000 1.000000
1.650000 1.000000 1.000000
1.700000 1.000000 1.000000
1.750000 1.000000 1.000000
1.800000 1.000000 1.000000
1.850000 1.000000 1.000000
1.900000 1.000000 1.000000
1.950000 1.000000 1.000000
2.000000 1.000000 1.000000
2.050000 1.000000 1.000000
2.100000 1.000000 1.000000
2.150000 1.000000 1.000000
2.200000 1.000000 1.000000
2.250000 1.000000 1.000000
2.300000 1.000000 1.000000
2.350000 1.000000 1.000000
2.400000 1.000000 1.000000
2.450000 1.000000 1.000000
2.500000 1.000000 1.000000
2.550000 1.000000 1.000000
2.600000 1.000000 1.000000
2.650000 1.000000 1.000000
2.700000 1.000000 1.000000
2.750000 1.000000 1.000000
2.800000 1.000000 1.000000
2.850000 1.000000 1.000000
2.900000 1.000000 1.000000
2.950000 1.000000 1.000000
3.000000 1.000000 1.000000
3.050000 1.000000 1.000000
3.100000 1.000000 1.000000
3.150000 1.000000 1.000000
3.200000 1.000000 1.000000
3.250000 1.000000 1.000000
3.300000 1.000000 1.000000
3.350000 1.000000 1.000000
3.400000 1.000000 1.000000
3.450000 1.000000 1.000000
3.500000 1.000000 1.000000
3.550000 1.000000 1.000000
3.600000 1.000000 1.000000
3.650000 1.000000 1.000000
3.700000 1.000000 1.000000
3.750000 1.000000 1.000000
3.800000 1.000000 1.000000
3.850000 1.000000 1.000000
3.900000 1.000000 1.000000
3.950000 1.000000 1.000000
4.000000 1.000000 1.000000
4.050000 1.000000 1.000000
4.100000 1.000000 1.000000
4.150000 1.000000 1.000000
4.200000 1.000000 1.000000
4.250000 1.000000 1.000000
4.300000 1.000000 1.000000
4.350000 1.000000 1.000000
4.400000 1.000000 1.000000
4.450000 1.000000 1.000000
4.500000 1.000000 1.000000
4.550000 1.000000 1.000000
4.600000 1.000000 1.000000
4.650000 1.000000 1.000000
4.700000 1.000000 1.000000
4.750000 1.000000 1.000000
4.800000 1.000000 1.000000
4.850000 1.000000 1.000000
4.900000 1.000000 1.000000
4.950000 1.000000 1.000000
5.000000 1.000000 1.000000
5.050000 1.000000 1.000000
5.100000 1.000000 1.000000
5.150000 1.000000 1.000000
5.200000 1.000000 1.000000
5.250000 1.000000 1.000000
5.300000 1.000000 1.000000
5.350000 1.000000 1.000000
5.400000 1.000000 1.000000
5.450000 1.000000 1.000000
5.500000 1.000000 1.000000
5.550000 1.000000 1.000000
5.600000 1.000000 1.000000
5.650000 1.000000 1.000000
5.700000 1.000000 1.000000
5.750000 1.000000 1.000000
5.800000 1.000000 1.000000
5.850000 1.000000 1.000000
5.900000 1.000000 1.000000
5.950000 1.000000 1.000000
6.000000 1.000000 1.000000
6.050000 1.000000 1.000000
6.100000 1.000000 1.000000
6.150000 1.000000 1.000000
6.200000 1.000000 1.000000
6.250000 1.000000 1.000000
6.300000 1.000000 1.000000
6.350000 1.000000 1.000000
6.400000 1.000000 1.000000
6.450000 1.000000 1.000000
6.500000 1.000000 1.000000
6.550000 1.000000 1.000000
6.600000 1.000000 1.000000
6.650000 1.000000 1.000000
6.700000 1.000000 1.000000
6.750000 1.000000 1.000000
6.800000 1.000000 1.000000
6.850000 1.000000 1.000000
6.900000 1.000000 1.000000
6.950000 1.000000 1.000000
7.000000 1.000000 1.000000
7.050000 1.000000 1.000000
7.100000 1.000000 1.000000
7.150000 1.000000 1.000000
7.200000 1.000000 1.000000
7.250000 1.000000 1.000000
7.300000 1.000000 1.000000
7.350000 1.000000 1.000000
7.400000 1.000000 1.000000
7.450000 1.000000 1.000000
7.500000 1.000000 1.000000
7.550000 1.000000 1.000000
7.600000 1.000000 1.000000
7.650000 1.000000 1.000000
7.700000 1.000000 1.000000
7.750000 1.000000 1.000000
7.800000 1.000000 1.000000
7.850000 1.000000 1.000000
7.900000 1.000000 1.000000
7.950000 1.000000 1.000000
8.000000 1.000000 1.000000
0.000000 0.950000 0.916667
0.050000 0.950000 0.916667
0.100000 0.950000 0.916667
0.150000 0.950000 0.916667
0.200000 0.950000 0.916667
0.250000 0.950000 0.916667
0.300000 0.950000 0.916667
0.350000 0.950000 0.916667
0.400000 0.950000 0.916667
0.450000 0.950000 0.916667
0.500000 0.950000 0.916667
0.550000 0.950000 0.916667
0.600000 0.950000 0.916667
0.650000 0.950000 0.916667
0.700000 0.950000 0.916667
0.750000 0.950000 0.916667
0.800000 0.950000 0.916667
0.850000 0.950000 0.916667
0.900000 0.950000 0.916667
0.950000 0.950000 0.916667
1.000000 0.950000 0.916667
1.050000 0.950000 0.916667
1.100000 0.950000 0.916667
1.150000 0.950000 0.916667
1.200000 0.950000 0.916667
1.250000 0.950000 0.916667
1.300000 0.950000 0.916667
1.350000 0.950000 0.916667
1.400000 0.950000 0.916667
1.450000 0.950000 0.916667
1.500000 0.950000 0.916667
1.550000 0.950000 0.916667
1.600000 0.950000 0.916667
1.650000 0.950000 0.916667
1.700000 0.950000 0.916667
1.750000 0.950000 0.916667
1.800000 0.950000 0.916667
1.850000 0.950000 0.916667
1.900000 0.950000 0.916667
1.950000 0.950000 0.916667
2.000000 0.950000 0.916667
2.050000 0.950000 0.916668
2.100000 0.950000 0.916669
2.150000 0.950000 0.916671
2.200000 0.950000 0.916675
2.250000 0.950000 0.916682
2.300000 0.950000 0.916694
2.350000 0.950000 0.916712
2.400000 0.950000 0.916742
2.450000 0.950000 0.916787
2.500000 0.950000 0.916853
2.550000 0.950000 0.916944
2.600000 0.950000 0.917066
2.650000 0.950000 0.917223
2.700000 0.950000 0.917417
2.750000 0.950000 0.917648
2.800000 0.950000 0.917917
2.850000 0.950000 0.918221
2.900000 0.950000 0.918559
2.950000 0.950000 0.918927
3.000000 0.950000 0.919322
3.050000 0.950000 0.919741
3.100000 0.950000 0.920179
3.150000 0.950000 0.920635
3.200000 0.950000 0.921105
3.250000 0.950000 0.921586
3.300000 0.950000 0.922077
3.350000 0.950000 0.922574
3.400000 0.950000 0.923075
3.450000 0.950000 0.923580
3.500000 0.950000 0.924086
3.550000 0.950000 0.924591
3.600000 0.950000 0.925096
3.650000 0.950000 0.925598
3.700000 0.950000 0.926097
3.750000 0.950000 0.926592
3.800000 0.950000 0.927082
3.850000 0.950000 0.927567
3.900000 0.950000 0.928047
3.950000 0.950000 0.928520
4.000000 0.950000 0.928986
4.050000 0.950000 0.929446
4.100000 0.950000 0.929898
4.150000 0.950000 0.930343
4.200000 0.950000 0.930781
4.250000 0.950000 0.931211
4.300000 0.950000 0.931634
4.350000 0.950000 0.932049
4.400000 0.950000 0.932456
4.450000 0.950000 0.932855
4.500000 0.950000 0.933247
4.550000 0.950000 0.933631
4.600000 0.950000 0.934007
4.650000 0.950000 0.934375
4.700000 0.950000 0.934736
4.750000 0.950000 0.935089
4.800000 0.950000 0.935435
4.850000 0.950000 0.935774
4.900000 0.950000 0.936105
4.950000 0.950000 0.936430
5.000000 0.950000 0.936747
5.050000 0.950000 0.937057
5.100000 0.950000 0.937360
5.150000 0.950000 0.937657
5.200000 0.950000 0.937947
5.250000 0.950000 0.938231
5.300000 0.950000 0.938508
5.350000 0.950000 0.938779
5.400000 0.950000 0.939043
5.450000 0.950000 0.939302
5.500000 0.950000 0.939555
5.550000 0.950000 0.939802
5.600000 0.950000 0.940043
5.650000 0.950000 0.940279
5.700000 0.950000 0.940510
5.750000 0.950000 0.940735
5.800000 0.950000 0.940954
5.850000 0.950000 0.941169
5.900000 0.950000 0.941379
5.950000 0.950000 0.941584
6.000000 0.950000 0.941784
6.050000 0.950000 0.941979
6.100000 0.950000 0.942170
6.150000 0.950000 0.942356
6.200000 0.950000 0.942538
6.250000 0.950000 0.942715
6.300000 0.950000 0.942889
6.350000 0.950000 0.943058
6.400000 0.950000 0.943224
6.450000 0.950000 0.943385
6.500000 0.950000 0.943543
6.550000 0.950000 0.943697
6.600000 0.950000 0.943847
6.650000 0.950000 0.943994
6.700000 0.950000 0.944137
6.750000 0.950000 0.944277
6.800000 0.950000 0.944413
6.850000 0.950000 0.944546
6.900000 0.950000 0.944677
6.950000 0.950000 0.944804
7.000000 0.950000 0.944928
7.050000 0.950000 0.945049
7.100000 0.950000 0.945167
7.150000 0.950000 0.945282
7.200000 0.950000 0.945395
7.250000 0.950000 0.945505
7.300000 0.950000 0.945612
7.350000 0.950000 0.945717
7.400000 0.950000 0.945819
7.450000 0.950000 0.945919
7.500000 0.950000 0.946016
7.550000 0.950000 0.946112
7.600000 0.950000 0.946205
7.650000 0.950000 0.946298
7.700000 0.950000 0.946393
7.750000 0.950000 0.946494
7.800000 0.950000 0.946617
7.850000 0.950000 0.946798
7.900000 0.950000 0.947141
7.950000 0.950000 0.947930
8.000000 0.950000 0.950000
0.000000 0.900000 0.833333
0.050000 0.900000 0.833333
0.100000 0.900000 0.833333
0.150000 0.900000 0.833333
0.200000 0.900000 0.833333
0.250000 0.900000 0.833333
0.300000 0.900000 0.833333
0.350000 0.900000 0.833333
0.400000 0.900000 0.833333
0.450000 0.900000 0.833333
0.500000 0.900000 0.833333
0.550000 0.900000 0.833333
0.600000 0.900000 0.833333
0.650000 0.900000 0.833333
0.700000 0.900000 0.833333
0.750000 0.900000 0.833333
0.800000 0.900000 0.833333
0.850000 0.900000 0.833333
0.900000 0.900000 0.833333
0.950000 0.900000 0.833333
1.000000 0.900000 0.833333
1.050000 0.900000 0.833333
1.100000 0.900000 0.833333
1.150000 0.900000 0.833333
1.200000 0.900000 0.833333
1.250000 0.900000 0.833333
1.300000 0.900000 0.833333
1.350000 0.900000 0.833333
1.400000 0.900000 0.833333
1.450000 0.900000 0.833333
1.500000 0.900000 0.833333
1.550000 0.900000 0.833333
1.600000 0.900000 0.833333
1.650000 0.900000 0.833333
1.700000 0.900000 0.833333
1.750000 0.900000 0.833333
1.800000 0.900000 0.833333
1.850000 0.900000 0.833334
1.900000 0.900000 0.833334
1.950000 0.900000 0.833334
2.000000 0.900000 0.833335
2.050000 0.900000 0.833337
2.100000 0.900000 0.833341
2.150000 0.900000 0.833348
2.200000 0.900000 0.833360
2.250000 0.900000 0.833380
2.300000 0.900000 0.833414
2.350000 0.900000 0.833469
2.400000 0.900000 0.833554
2.450000 0.900000 0.833680
2.500000 0.900000 0.833857
2.550000 0.900000 0.834098
2.600000 0.900000 0.834409
2.650000 0.900000 0.834795
2.700000 0.900000 0.835259
2.750000 0.900000 0.835798
2.800000 0.900000 0.836410
2.850000 0.900000 0.837088
2.900000 0.900000 0.837827
2.950000 0.900000 0.838621
3.000000 0.900000 0.839461
3.050000 0.900000 0.840342
3.100000 0.900000 0.841256
3.150000 0.900000 0.842199
3.200000 0.900000 0.843164
3.250000 0.900000 0.844147
3.300000 0.900000 0.845143
3.350000 0.900000 0.846148
3.400000 0.900000 0.847158
3.450000 0.900000 0.848171
3.500000 0.900000 0.849184
3.550000 0.900000 0.850194
3.600000 0.900000 0.851199
3.650000 0.900000 0.852198
3.700000 0.900000 0.853189
3.750000 0.900000 0.854170
3.800000 0.900000 0.855140
3.850000 0.900000 0.856099
3.900000 0.900000 0.857046
3.950000 0.900000 0.857979
4.000000 0.900000 0.858898
4.050000 0.900000 0.859804
4.100000 0.900000 0.860694
4.150000 0.900000 0.861570
4.200000 0.900000 0.862430
4.250000 0.900000 0.863276
4.300000 0.900000 0.864105
4.350000 0.900000 0.864919
4.400000 0.900000 0.865718
4.450000 0.900000 0.866501
4.500000 0.900000 0.867269
4.550000 0.900000 0.868021
4.600000 0.900000 0.868758
4.650000 0.900000 0.869480
4.700000 0.900000 0.870186
4.750000 0.900000 0.870878
4.800000 0.900000 0.871555
4.850000 0.900000 0.872218
4.900000 0.900000 0.872866
4.950000 0.900000 0.873500
5.000000 0.900000 0.874121
5.050000 0.900000 0.874727
5.100000 0.900000 0.875321
5.150000 0.900000 0.875901
5.200000 0.900000 0.876468
5.250000 0.900000 0.877022
5.300000 0.900000 0.877563
5.350000 0.900000 0.878093
5.400000 0.900000 0.878610
5.450000 0.900000 0.879116
5.500000 0.900000 0.879610
5.550000 0.900000 0.880092
5.600000 0.900000 0.880564
5.650000 0.900000 0.881024
5.700000 0.900000 0.881474
5.750000 0.900000 0.881914
5.800000 0.900000 0.882343
5.850000 0.900000 0.882762
5.900000 0.900000 0.883172
5.950000 0.900000 0.883572
6.000000 0.900000 0.883962
6.050000 0.900000 0.884344
6.100000 0.900000 0.884716
6.150000 0.900000 0.885080
6.200000 0.900000 0.885435
6.250000 0.900000 0.885782
6.300000 0.900000 0.886121
6.350000 0.900000 0.886451
6.400000 0.900000 0.886774
6.450000 0.900000 0.887089
6.500000 0.900000 0.887397
6.550000 0.900000 0.887697
6.600000 0.900000 0.887991
6.650000 0.900000 0.888277
6.700000 0.900000 0.888557
6.750000 0.900000 0.888830
6.800000 0.900000 0.889096
6.850000 0.900000 0.889356
6.900000 0.900000 0.889610
6.950000 0.900000 0.889858
7.000000 0.900000 0.890100
7.050000 0.900000 0.890336
7.100000 0.900000 0.890567
7.150000 0.900000 0.890792
7.200000 0.900000 0.891012
7.250000 0.900000 0.891226
7.300000 0.900000 0.891436
7.350000 0.900000 0.891640
7.400000 0.900000 0.891840
7.450000 0.900000 0.892035
7.500000 0.900000 0.892225
7.550000 0.900000 0.892412
7.600000 0.900000 0.892596
7.650000 0.900000 0.892779
7.700000 0.900000 0.892968
7.750000 0.900000 0.893175
7.800000 0.900000 0.893436
7.850000 0.900000 0.893834
7.900000 0.900000 0.894581
7.950000 0.900000 0.896203
8.000000 0.900000 0.900000
0.000000 0.850000 0.750000
0.050000 0.850000 0.750000
0.100000 0.850000 0.750000
0.150000 0.850000 0.750000
0.200000 0.850000 0.750000
0.250000 0.850000 0.750000
0.300000 0.850000 0.750000
0.350000 0.850000 0.750000
0.400000 0.850000 0.750000
0.450000 0.850000 0.750000
0.500000 0.850000 0.750000
0.550000 0.850000 0.750000
0.600000 0.850000 0.750000
0.650000 0.850000 0.750000
0.700000 0.850000 0.750000
0.750000 0.850000 0.750000
0.800000 0.850000 0.750000
0.850000 0.850000 0.750000
0.900000 0.850000 0.750000
0.950000 0.850000 0.750000
1.000000 0.850000 0.750000
1.050000 0.850000 0.750000
1.100000 0.850000 0.750000
1.150000 0.850000 0.750000
1.200000 0.850000 0.750000
1.250000 0.850000 0.750000
1.300000 0.850000 0.750000
1.350000 0.850000 0.750000
1.400000 0.850000 0.750000
1.450000 0.850000 0.750000
1.500000 0.850000 0.750000
1.550000 0.850000 0.750000
1.600000 0.850000 0.750000
1.650000 0.850000 0.750000
1.700000 0.850000 0.750000
1.750000 0.850000 0.750000
1.800000 0.850000 0.750000
1.850000 0.850000 0.750001
1.900000 0.850000 0.750001
1.950000 0.850000 0.750003
2.000000 0.850000 0.750005
2.050000 0.850000 0.750010
2.100000 0.850000 0.750019
2.150000 0.850000 0.750035
2.200000 0.850000 0.750064
2.250000 0.850000 0.750114
2.300000 0.850000 0.750196
2.350000 0.850000 0.750325
2.400000 0.850000 0.750520
2.450000 0.850000 0.750800
2.500000 0.850000 0.751181
2.550000 0.850000 0.751676
2.600000 0.850000 0.752291
2.650000 0.850000 0.753025
2.700000 0.850000 0.753876
2.750000 0.850000 0.754836
2.800000 0.850000 0.755894
2.850000 0.850000 0.757042
2.900000 0.850000 0.758267
2.950000 0.850000 0.759559
3.000000 0.850000 0.760908
3.050000 0.850000 0.762305
3.100000 0.850000 0.763740
3.150000 0.850000 0.765205
3.200000 0.850000 0.766694
3.250000 0.850000 0.768199
3.300000 0.850000 0.769716
3.350000 0.850000 0.771238
3.400000 0.850000 0.772763
3.450000 0.850000 0.774285
3.500000 0.850000 0.775801
3.550000 0.850000 0.777309
3.600000 0.850000 0.778806
3.650000 0.850000 0.780290
3.700000 0.850000 0.781759
3.750000 0.850000 0.783210
3.800000 0.850000 0.784644
3.850000 0.850000 0.786058
3.900000 0.850000 0.787452
3.950000 0.850000 0.788825
4.000000 0.850000 0.790176
4.050000 0.850000 0.791505
4.100000 0.850000 0.792812
4.150000 0.850000 0.794095
4.200000 0.850000 0.795355
4.250000 0.850000 0.796592
4.300000 0.850000 0.797806
4.350000 0.850000 0.798996
4.400000 0.850000 0.800163
4.450000 0.850000 0.801306
4.500000 0.850000 0.802427
4.550000 0.850000 0.803524
4.600000 0.850000 0.804599
4.650000 0.850000 0.805652
4.700000 0.850000 0.806682
4.750000 0.850000 0.807690
4.800000 0.850000 0.808676
4.850000 0.850000 0.809641
4.900000 0.850000 0.810585
4.950000 0.850000 0.811508
5.000000 0.850000 0.812411
5.050000 0.850000 0.813294
5.100000 0.850000 0.814157
5.150000 0.850000 0.815001
5.200000 0.850000 0.815825
5.250000 0.850000 0.816631
5.300000 0.850000 0.817419
5.350000 0.850000 0.818189
5.400000 0.850000 0.818941
5.450000 0.850000 0.819676
5.500000 0.850000 0.820394
5.550000 0.850000 0.821095
5.600000 0.850000 0.821780
5.650000 0.850000 0.822450
5.700000 0.850000 0.823103
5.750000 0.850000 0.823742
5.800000 0.850000 0.824366
5.850000 0.850000 0.824975
5.900000 0.850000 0.825569
5.950000 0.850000 0.826150
6.000000 0.850000 0.826718
6.050000 0.850000 0.827272
6.100000 0.850000 0.827813
6.150000 0.850000 0.828341
6.200000 0.850000 0.828857
6.250000 0.850000 0.829360
6.300000 0.850000 0.829852
6.350000 0.850000 0.830332
6.400000 0.850000 0.830801
6.450000 0.850000 0.831258
6.500000 0.850000 0.831705
6.550000 0.850000 0.832142
6.600000 0.850000 0.832567
6.650000 0.850000 0.832983
6.700000 0.850000 0.833389
6.750000 0.850000 0.833785
6.800000 0.850000 0.834172
6.850000 0.850000 0.834550
6.900000 0.850000 0.834919
6.950000 0.850000 0.835278
7.000000 0.850000 0.835630
7.050000 0.850000 0.835973
7.100000 0.850000 0.836308
7.150000 0.850000 0.836634
7.200000 0.850000 0.836953
7.250000 0.850000 0.837265
7.300000 0.850000 0.837569
7.350000 0.850000 0.837865
7.400000 0.850000 0.838155
7.450000 0.850000 0.838438
7.500000 0.850000 0.838715
7.550000 0.850000 0.838987
7.600000 0.850000 0.839255
7.650000 0.850000 0.839524
7.700000 0.850000 0.839803
7.750000 0.850000 0.840117
7.800000 0.850000 0.840521
7.850000 0.850000 0.841146
7.900000 0.850000 0.842300
7.950000 0.850000 0.844703
8.000000 0.850000 0.850000
0.000000 0.800000 0.666667
0.050000 0.800000 0.666667
0.100000 0.800000 0.666667
0.150000 0.800000 0.666667
0.200000 0.800000 0.666667
0.250000 0.800000 0.666667
0.300000 0.800000 0.666667
0.350000 0.800000 0.666667
0.400000 0.800000 0.666667
0.450000 0.800000 0.666667
0.500000 0.800000 0.666667
0.550000 0.800000 0.666667
0.600000 0.800000 0.666667
0.650000 0.800000 0.666667
0.700000 0.800000 0.666667
0.750000 0.800000 0.666667
0.800000 0.800000 0.666667
0.850000 0.800000 0.666667
0.900000 0.800000 0.666667
0.950000 0.800000 0.666667
1.000000 0.800000 0.666667
1.050000 0.800000 0.666667
1.100000 0.800000 0.666667
1.150000 0.800000 0.666667
1.200000 0.800000 0.666667
1.250000 0.800000 0.666667
1.300000 0.800000 0.666667
1.350000 0.800000 0.666667
1.400000 0.800000 0.666667
1.450000 0.800000 0.666667
1.500000 0.800000 0.666667
1.550000 0.800000 0.666667
1.600000 0.800000 0.666667
1.650000 0.800000 0.666667
1.700000 0.800000 0.666667
1.750000 0.800000 0.666667
1.800000 0.800000 0.666667
1.850000 0.800000 0.666668
1.900000 0.800000 0.666669
1.950000 0.800000 0.666672
2.000000 0.800000 0.666678
2.050000 0.800000 0.666689
2.100000 0.800000 0.666710
2.150000 0.800000 0.666748
2.200000 0.800000 0.666815
2.250000 0.800000 0.666930
2.300000 0.800000 0.667115
2.350000 0.800000 0.667401
2.400000 0.800000 0.667818
2.450000 0.800000 0.668391
2.500000 0.800000 0.669134
2.550000 0.800000 0.670052
2.600000 0.800000 0.671139
2.650000 0.800000 0.672385
2.700000 0.800000 0.673774
2.750000 0.800000 0.675290
2.800000 0.800000 0.676917
2.850000 0.800000 0.678639
2.900000 0.800000 0.680441
2.950000 0.800000 0.682309
3.000000 0.800000 0.684230
3.050000 0.800000 0.686193
3.100000 0.800000 0.688188
3.150000 0.800000 0.690207
3.200000 0.800000 0.692241
3.250000 0.800000 0.694283
3.300000 0.800000 0.696328
3.350000 0.800000 0.698370
3.400000 0.800000 0.700404
3.450000 0.800000 0.702428
3.500000 0.800000 0.704436
3.550000 0.800000 0.706427
3.600000 0.800000 0.708397
3.650000 0.800000 0.710345
3.700000 0.800000 0.712269
3.750000 0.800000 0.714166
3.800000 0.800000 0.716037
3.850000 0.800000 0.717879
3.900000 0.800000 0.719693
3.950000 0.800000 0.721476
4.000000 0.800000 0.723229
4.050000 0.800000 0.724952
4.100000 0.800000 0.726643
4.150000 0.800000 0.728303
4.200000 0.800000 0.729932
4.250000 0.800000 0.731529
4.300000 0.800000 0.733096
4.350000 0.800000 0.734630
4.400000 0.800000 0.736134
4.450000 0.800000 0.737608
4.500000 0.800000 0.739050
4.550000 0.800000 0.740463
4.600000 0.800000 0.741846
4.650000 0.800000 0.743199
4.700000 0.800000 0.744523
4.750000 0.800000 0.745818
4.800000 0.800000 0.747086
4.850000 0.800000 0.748325
4.900000 0.800000 0.749537
4.950000 0.800000 0.750722
5.000000 0.800000 0.751880
5.050000 0.800000 0.753013
5.100000 0.800000 0.754120
5.150000 0.800000 0.755202
5.200000 0.800000 0.756259
5.250000 0.800000 0.757293
5.300000 0.800000 0.758302
5.350000 0.800000 0.759289
5.400000 0.800000 0.760253
5.450000 0.800000 0.761194
5.500000 0.800000 0.762114
5.550000 0.800000 0.763013
5.600000 0.800000 0.763890
5.650000 0.800000 0.764748
5.700000 0.800000 0.765585
5.750000 0.800000 0.766402
5.800000 0.800000 0.767201
5.850000 0.800000 0.767981
5.900000 0.800000 0.768743
5.950000 0.800000 0.769486
6.000000 0.800000 0.770213
6.050000 0.800000 0.770922
6.100000 0.800000 0.771614
6.150000 0.800000 0.772290
6.200000 0.800000 0.772950
6.250000 0.800000 0.773595
6.300000 0.800000 0.774224
6.350000 0.800000 0.774839
6.400000 0.800000 0.775439
6.450000 0.800000 0.776024
6.500000 0.800000 0.776596
6.550000 0.800000 0.777154
6.600000 0.800000 0.777699
6.650000 0.800000 0.778231
6.700000 0.800000 0.778751
6.750000 0.800000 0.779258
6.800000 0.800000 0.779753
6.850000 0.800000 0.780236
6.900000 0.800000 0.780708
6.950000 0.800000 0.781168
7.000000 0.800000 0.781617
7.050000 0.800000 0.782056
7.100000 0.800000 0.782485
7.150000 0.800000 0.782903
7.200000 0.800000 0.783311
7.250000 0.800000 0.783709
7.300000 0.800000 0.784098
7.350000 0.800000 0.784478
7.400000 0.800000 0.784848
7.450000 0.800000 0.785211
7.500000 0.800000 0.785565
7.550000 0.800000 0.785913
7.600000 0.800000 0.786258
7.650000 0.800000 0.786605
7.700000 0.800000 0.786970
7.750000 0.800000 0.787386
7.800000 0.800000 0.787929
7.850000 0.800000 0.788773
7.900000 0.800000 0.790308
7.950000 0.800000 0.793409
8.000000 0.800000 0.800000
0.000000 0.750000 0.583333
0.050000 0.750000 0.583333
0.100000 0.750000 0.583333
0.150000 0.750000 0.583333
0.200000 0.750000 0.583333
0.250000 0.750000 0.583333
0.300000 0.750000 0.583333
0.350000 0.750000 0.583333
0.400000 0.750000 0.583333
0.450000 0.750000 0.583333
0.500000 0.750000 0.583333
0.550000 0.750000 0.583333
0.600000 0.750000 0.583333
0.650000 0.750000 0.583333
0.700000 0.750000 0.583333
0.750000 0.750000 0.583333
0.800000 0.750000 0.583333
0.850000 0.750000 0.583333
0.900000 0.750000 0.583333
0.950000 0.750000 0.583333
1.000000 0.750000 0.583333
1.050000 0.750000 0.583333
1.100000 0.750000 0.583333
1.150000 0.750000 0.583333
1.200000 0.750000 0.583333
1.250000 0.750000 0.583333
1.300000 0.750000 0.583333
1.350000 0.750000 0.583333
1.400000 0.750000 0.583333
1.450000 0.750000 0.583333
1.500000 0.750000 0.583333
1.550000 0.750000 0.583333
1.600000 0.750000 0.583333
1.650000 0.750000 0.583333
1.700000 0.750000 0.583334
1.750000 0.750000 0.583334
1.800000 0.750000 0.583335
1.850000 0.750000 0.583336
1.900000 0.750000 0.583339
1.950000 0.750000 0.583346
2.000000 0.750000 0.583359
2.050000 0.750000 0.583384
2.100000 0.750000 0.583432
2.150000 0.750000 0.583520
2.200000 0.750000 0.583674
2.250000 0.750000 0.583934
2.300000 0.750000 0.584347
2.350000 0.750000 0.584960
2.400000 0.750000 0.585811
2.450000 0.750000 0.586913
2.500000 0.750000 0.588259
2.550000 0.750000 0.589830
2.600000 0.750000 0.591601
2.650000 0.750000 0.593544
2.700000 0.750000 0.595634
2.750000 0.750000 0.597846
2.800000 0.750000 0.600157
2.850000 0.750000 0.602549
2.900000 0.750000 0.605005
2.950000 0.750000 0.607509
3.000000 0.750000 0.610049
3.050000 0.750000 0.612614
3.100000 0.750000 0.615193
3.150000 0.750000 0.617779
3.200000 0.750000 0.620364
3.250000 0.750000 0.622943
3.300000 0.750000 0.625508
3.350000 0.750000 0.628057
3.400000 0.750000 0.630585
3.450000 0.750000 0.633088
3.500000 0.750000 0.635564
3.550000 0.750000 0.638010
3.600000 0.750000 0.640424
3.650000 0.750000 0.642805
3.700000 0.750000 0.645150
3.750000 0.750000 0.647459
3.800000 0.750000 0.649730
3.850000 0.750000 0.651963
3.900000 0.750000 0.654158
3.950000 0.750000 0.656313
4.000000 0.750000 0.658429
4.050000 0.750000 0.660506
4.100000 0.750000 0.662543
4.150000 0.750000 0.664540
4.200000 0.750000 0.666498
4.250000 0.750000 0.668417
4.300000 0.750000 0.670296
4.350000 0.750000 0.672137
4.400000 0.750000 0.673940
4.450000 0.750000 0.675704
4.500000 0.750000 0.677431
4.550000 0.750000 0.679122
4.600000 0.750000 0.680775
4.650000 0.750000 0.682393
4.700000 0.750000 0.683975
4.750000 0.750000 0.685523
4.800000 0.750000 0.687036
4.850000 0.750000 0.688515
4.900000 0.750000 0.689962
4.950000 0.750000 0.691376
5.000000 0.750000 0.692757
5.050000 0.750000 0.694108
5.100000 0.750000 0.695428
5.150000 0.750000 0.696717
5.200000 0.750000 0.697978
5.250000 0.750000 0.699209
5.300000 0.750000 0.700412
5.350000 0.750000 0.701587
5.400000 0.750000 0.702735
5.450000 0.750000 0.703856
5.500000 0.750000 0.704951
5.550000 0.750000 0.706021
5.600000 0.750000 0.707065
5.650000 0.750000 0.708086
5.700000 0.750000 0.709082
5.750000 0.750000 0.710055
5.800000 0.750000 0.711006
5.850000 0.750000 0.711934
5.900000 0.750000 0.712840
5.950000 0.750000 0.713724
6.000000 0.750000 0.714588
6.050000 0.750000 0.715432
6.100000 0.750000 0.716256
6.150000 0.750000 0.717060
6.200000 0.750000 0.717845
6.250000 0.750000 0.718612
6.300000 0.750000 0.719360
6.350000 0.750000 0.720091
6.400000 0.750000 0.720804
6.450000 0.750000 0.721500
6.500000 0.750000 0.722180
6.550000 0.750000 0.722844
6.600000 0.750000 0.723492
6.650000 0.750000 0.724125
6.700000 0.750000 0.724742
6.750000 0.750000 0.725345
6.800000 0.750000 0.725933
6.850000 0.750000 0.726508
6.900000 0.750000 0.727069
6.950000 0.750000 0.727616
7.000000 0.750000 0.728150
7.050000 0.750000 0.728672
7.100000 0.750000 0.729181
7.150000 0.750000 0.729678
7.200000 0.750000 0.730163
7.250000 0.750000 0.730637
7.300000 0.750000 0.731099
7.350000 0.750000 0.731550
7.400000 0.750000 0.731991
7.450000 0.750000 0.732422
7.500000 0.750000 0.732844
7.550000 0.750000 0.733258
7.600000 0.750000 0.733670
7.650000 0.750000 0.734087
7.700000 0.750000 0.734528
7.750000 0.750000 0.735037
7.800000 0.750000 0.735708
7.850000 0.750000 0.736751
7.900000 0.750000 0.738625
7.950000 0.750000 0.742327
8.000000 0.750000 0.750000
0.000000 0.700000 0.500000
0.050000 0.700000 0.500000
0.100000 0.700000 0.500000
0.150000 0.700000 0.500000
0.200000 0.700000 0.500000
0.250000 0.700000 0.500000
0.300000 0.700000 0.500000
0.350000 0.700000 0.500000
0.400000 0.700000 0.500000
0.450000 0.700000 0.500000
0.500000 0.700000 0.500000
0.550000 0.700000 0.500000
0.600000 0.700000 0.500000
0.650000 0.700000 0.500000
0.700000 0.700000 0.500000
0.750000 0.700000 0.500000
0.800000 0.700000 0.500000
0.850000 0.700000 0.500000
0.900000 0.700000 0.500000
0.950000 0.700000 0.500000
1.000000 0.700000 0.500000
1.050000 0.700000 0.500000
1.100000 0.700000 0.500000
1.150000 0.700000 0.500000
1.200000 0.700000 0.500000
1.250000 0.700000 0.500000
1.300000 0.700000 0.500000
1.350000 0.700000 0.500000
1.400000 0.700000 0.500000
1.450000 0.700000 0.500000
1.500000 0.700000 0.500000
1.550000 0.700000 0.500000
1.600000 0.700000 0.500000
1.650000 0.700000 0.500000
1.700000 0.700000 0.500001
1.750000 0.700000 0.500001
1.800000 0.700000 0.500003
1.850000 0.700000 0.500006
1.900000 0.700000 0.500013
1.950000 0.700000 0.500027
2.000000 0.700000 0.500056
2.050000 0.700000 0.500114
2.100000 0.700000 0.500224
2.150000 0.700000 0.500428
2.200000 0.700000 0.500786
2.250000 0.700000 0.501377
2.300000 0.700000 0.502282
2.350000 0.700000 0.503554
2.400000 0.700000 0.505191
2.450000 0.700000 0.507158
2.500000 0.700000 0.509408
2.550000 0.700000 0.511890
2.600000 0.700000 0.514557
2.650000 0.700000 0.517372
2.700000 0.700000 0.520301
2.750000 0.700000 0.523316
2.800000 0.700000 0.526396
2.850000 0.700000 0.529520
2.900000 0.700000 0.532674
2.950000 0.700000 0.535844
3.000000 0.700000 0.539019
3.050000 0.700000 0.542191
3.100000 0.700000 0.545352
3.150000 0.700000 0.548495
3.200000 0.700000 0.551615
3.250000 0.700000 0.554706
3.300000 0.700000 0.557766
3.350000 0.700000 0.560790
3.400000 0.700000 0.563776
3.450000 0.700000 0.566722
3.500000 0.700000 0.569626
3.550000 0.700000 0.572485
3.600000 0.700000 0.575299
3.650000 0.700000 0.578067
3.700000 0.700000 0.580788
3.750000 0.700000 0.583461
3.800000 0.700000 0.586086
3.850000 0.700000 0.588662
3.900000 0.700000 0.591190
3.950000 0.700000 0.593669
4.000000 0.700000 0.596100
4.050000 0.700000 0.598482
4.100000 0.700000 0.600817
4.150000 0.700000 0.603103
4.200000 0.700000 0.605343
4.250000 0.700000 0.607535
4.300000 0.700000 0.609682
4.350000 0.700000 0.611783
4.400000 0.700000 0.613838
4.450000 0.700000 0.615849
4.500000 0.700000 0.617817
4.550000 0.700000 0.619741
4.600000 0.700000 0.621623
4.650000 0.700000 0.623463
4.700000 0.700000 0.625261
4.750000 0.700000 0.627020
4.800000 0.700000 0.628739
4.850000 0.700000 0.630419
4.900000 0.700000 0.632061
4.950000 0.700000 0.633666
5.000000 0.700000 0.635234
5.050000 0.700000 0.636766
5.100000 0.700000 0.638262
5.150000 0.700000 0.639725
5.200000 0.700000 0.641153
5.250000 0.700000 0.642549
5.300000 0.700000 0.643912
5.350000 0.700000 0.645243
5.400000 0.700000 0.646543
5.450000 0.700000 0.647813
5.500000 0.700000 0.649054
5.550000 0.700000 0.650265
5.600000 0.700000 0.651448
5.650000 0.700000 0.652603
5.700000 0.700000 0.653731
5.750000 0.700000 0.654833
5.800000 0.700000 0.655908
5.850000 0.700000 0.656958
5.900000 0.700000 0.657984
5.950000 0.700000 0.658985
6.000000 0.700000 0.659962
6.050000 0.700000 0.660917
6.100000 0.700000 0.661848
6.150000 0.700000 0.662758
6.200000 0.700000 0.663646
6.250000 0.700000 0.664513
6.300000 0.700000 0.665360
6.350000 0.700000 0.666186
6.400000 0.700000 0.666993
6.450000 0.700000 0.667781
6.500000 0.700000 0.668550
6.550000 0.700000 0.669300
6.600000 0.700000 0.670033
6.650000 0.700000 0.670748
6.700000 0.700000 0.671447
6.750000 0.700000 0.672128
6.800000 0.700000 0.672794
6.850000 0.700000 0.673443
6.900000 0.700000 0.674077
6.950000 0.700000 0.674696
7.000000 0.700000 0.675300
7.050000 0.700000 0.675890
7.100000 0.700000 0.676466